!--------------------------------------------------
! S-parameter Generated by TDK Corporation
! Copyright(C) 2015 TDK Corporation.
! All Rights Reserved.
!--------------------------------------------------
! TDK P/N: ATB2012-50011 (Balun Transformers)
! Property: UnBal. : Bal. = 50ohm : 50ohm
! Size(LxWxT): 2x1.2x1.2mm, 0.079x0.047x0.047inches
! Model Type: s3p (Touchstone File Format Version 1.0)
! Frequency: DC=Yes Start=0.3MHz Stop=8500MHz 225points Log-sweep
! Note: 
! Model Generated on Jun. 23, 2015
! Hash(MD5):
!--------------------------------------------------
! Port Assignments:
!
!  1 ---@@@--- 3
!       ===
! GND---@@@--- 2
!
!--------------------------------------------------
! Applicable Conditions:
!   Temperature = 25 degC
!   DC Bias Current = 0 A
!   Small Signal Operation
!--------------------------------------------------
! Terms and conditions regarding TDK Simulation Models
! (1)This simulation model is being provided solely for informational purposes. Please refer to the specifications of the products in terms of detailed characteristics of such products.
! (2)In no event shall TDK Corporation of any of its subsidiaries be liable for any loss or damage arising, directly or indirectly, 
!    From any information contained in this simulation model, including, but not limited to loss or damages arising from any inaccuracies, omissions or errors in connection with such information.
! (3)Any and all copyrights on this simulation model are owned by TDK Corporation.
!    Duplication or redistribution of this simulation model without prior written permission from TDK Corporation is prohibited.
! (4)This simulation model is subject to any modification or change without any prior notice.
! (5)Neither TDK Corporation nor any of its subsidiaries shall make any warranty, express or implied, 
!    Including but not limited to the correctness, implied warranties of merchantability and fitness for a particular purpose with respect to this simulation models.
! (6)The use of this simulation model shall be deemed to have consented to the terms and conditions hereof.
!--------------------------------------------------
# MHz S MA R 50
0.00000000000E+00	 8.02010702719E-03	 0.00000000000E+00	 7.89253433953E-10	 0.00000000000E+00	 9.91979792973E-01	 0.00000000000E+00
	 7.89253433953E-10	 0.00000000000E+00	 9.68174616477E-01	 0.00000000000E+00	 8.02015662619E-10	 0.00000000000E+00
	 9.91979792973E-01	 0.00000000000E+00	 8.02015662619E-10	 0.00000000000E+00	 8.02010702719E-03	 0.00000000000E+00
3.00000000000E-01	 3.67800743691E-02	 7.20176971479E+01	 7.08596700860E-02	-9.65617883961E+01	 9.89034116172E-01	-1.92174443988E+00
	 7.05417601147E-02	-9.66543051847E+01	 9.63700868899E-01	 1.71761085025E+02	 7.04854681493E-02	 8.33637322990E+01
	 9.89553575686E-01	-2.03985858245E+00	 7.03968903894E-02	 8.33966475633E+01	 3.66033217687E-02	 7.21434344548E+01
3.14113581859E-01	 3.83604955047E-02	 7.20576765919E+01	 7.40402410541E-02	-9.69091170995E+01	 9.88252551849E-01	-2.03278179789E+00
	 7.37275949189E-02	-9.69565668761E+01	 9.63187179543E-01	 1.71378523043E+02	 7.36480777495E-02	 8.30444497679E+01
	 9.89455558099E-01	-2.12900039461E+00	 7.36394654833E-02	 8.31515398989E+01	 3.82555264719E-02	 7.21503075224E+01
3.28891141027E-01	 4.00718604988E-02	 7.22046566255E+01	 7.73962778707E-02	-9.72520001159E+01	 9.88011828159E-01	-2.14568650678E+00
	 7.70697029515E-02	-9.72765381937E+01	 9.62487969795E-01	 1.70968178507E+02	 7.70012557998E-02	 8.27147501739E+01
	 9.88994626322E-01	-2.23718378032E+00	 7.69906452161E-02	 8.28007773568E+01	 3.99161821500E-02	 7.22700667942E+01
3.44363914499E-01	 4.18116976234E-02	 7.23219645703E+01	 8.08414146825E-02	-9.75855237881E+01	 9.87511846352E-01	-2.24086846546E+00
	 8.05226975225E-02	-9.75978389643E+01	 9.62080818798E-01	 1.70543483528E+02	 8.04612696856E-02	 8.24048443439E+01
	 9.88733336067E-01	-2.33311195471E+00	 8.05021616138E-02	 8.24940834162E+01	 4.16916333521E-02	 7.24394620499E+01
3.60564608821E-01	 4.35805653461E-02	 7.24109726865E+01	 8.44609198953E-02	-9.79362103492E+01	 9.87192240964E-01	-2.35372094681E+00
	 8.41536991197E-02	-9.79194752449E+01	 9.61482036595E-01	 1.70101959817E+02	 8.41013544255E-02	 8.20883894648E+01
	 9.88255753454E-01	-2.44672392389E+00	 8.41804334948E-02	 8.21636165462E+01	 4.35072366134E-02	 7.25114227562E+01
3.77527469228E-01	 4.55441008866E-02	 7.24658785826E+01	 8.82555376746E-02	-9.83255469818E+01	 9.86803717756E-01	-2.46664475310E+00
	 8.80017027476E-02	-9.82645775065E+01	 9.60542685419E-01	 1.69639008330E+02	 8.79193236828E-02	 8.17645337656E+01
	 9.87780018630E-01	-2.55748459694E+00	 8.79972227781E-02	 8.18022335174E+01	 4.54311641119E-02	 7.26381162219E+01
3.95288352031E-01	 4.75700692802E-02	 7.24674137783E+01	 9.22198573734E-02	-9.86613582230E+01	 9.86246087748E-01	-2.58159896033E+00
	 9.20212703691E-02	-9.86167798627E+01	 9.59888496791E-01	 1.69166962596E+02	 9.19246970615E-02	 8.13999868073E+01
	 9.87288576149E-01	-2.67159766051E+00	 9.20070758984E-02	 8.14663671435E+01	 4.74611698355E-02	 7.26306026133E+01
4.13884800412E-01	 4.96110515741E-02	 7.24140997601E+01	 9.63061012657E-02	-9.90519511594E+01	 9.85870110211E-01	-2.70011231612E+00
	 9.61617022887E-02	-9.90108587506E+01	 9.58492058486E-01	 1.68654958414E+02	 9.60902331755E-02	 8.10543437276E+01
	 9.86409845445E-01	-2.82425169629E+00	 9.60972662795E-02	 8.10705083549E+01	 4.95563486657E-02	 7.26134704945E+01
4.33356123781E-01	 5.17928619263E-02	 7.25259219234E+01	 1.00640793950E-01	-9.94138605373E+01	 9.85270831696E-01	-2.83363834017E+00
	 1.00521681948E-01	-9.93912495629E+01	 9.57874563722E-01	 1.68133909932E+02	 1.00448177151E-01	 8.06504163865E+01
	 9.86231038496E-01	-2.90793773294E+00	 1.00504992298E-01	 8.07036518050E+01	 5.17599252240E-02	 7.27066870953E+01
4.53743480871E-01	 5.40735120112E-02	 7.25376851685E+01	 1.05205040366E-01	-9.98110319970E+01	 9.84691633838E-01	-2.96461206210E+00
	 1.05071421587E-01	-9.98211830590E+01	 9.57011233960E-01	 1.67577358649E+02	 1.04996011940E-01	 8.02327111244E+01
	 9.85652830632E-01	-3.02517293996E+00	 1.05094811850E-01	 8.03111460157E+01	 5.40728655766E-02	 7.26928744770E+01
4.75089966739E-01	 5.65078874853E-02	 7.24581332294E+01	 1.09942225790E-01	-1.00235918160E+02	 9.84067427316E-01	-3.09811592561E+00
	 1.09789753139E-01	-1.00198775146E+02	 9.55868278097E-01	 1.67008577890E+02	 1.09720690127E-01	 7.98187484025E+01
	 9.84920794234E-01	-3.16598339036E+00	 1.09842759981E-01	 7.98625646665E+01	 5.64666860420E-02	 7.25918101455E+01
4.97440703859E-01	 5.89700124295E-02	 7.23803117626E+01	 1.14866701345E-01	-1.00651064485E+02	 9.83355044277E-01	-3.24470233043E+00
	 1.14781675839E-01	-1.00650115525E+02	 9.54819771759E-01	 1.66412317708E+02	 1.14693362765E-01	 7.93933388603E+01
	 9.84220521584E-01	-3.30365082942E+00	 1.14789811702E-01	 7.94402776697E+01	 5.89881887195E-02	 7.24799956123E+01
5.20842937505E-01	 6.16201414940E-02	 7.21395908645E+01	 1.20006003752E-01	-1.01109348302E+02	 9.82546987259E-01	-3.39337489531E+00
	 1.19908638723E-01	-1.01086509274E+02	 9.53003935532E-01	 1.65800000727E+02	 1.19834180871E-01	 7.89735639601E+01
	 9.83234354509E-01	-3.47581663921E+00	 1.19890531264E-01	 7.89791998005E+01	 6.15855244157E-02	 7.22723823139E+01
5.45346135619E-01	 6.27605099350E-02	 7.29218764221E+01	 1.26380893083E-01	-1.02359617532E+02	 9.77487105705E-01	-4.20359268981E+00
	 1.22411011728E-01	-1.00007267696E+02	 9.39938393508E-01	 1.64889368750E+02	 1.27074978222E-01	 7.81051067071E+01
	 9.84593462735E-01	-3.55688950814E+00	 1.26385027650E-01	 7.78141224390E+01	 6.53174341093E-02	 7.18406306061E+01
5.71002093374E-01	 6.71891329279E-02	 7.17937994821E+01	 1.30961309986E-01	-1.02088941443E+02	 9.80694853236E-01	-3.70056771399E+00
	 1.30911291227E-01	-1.02054453766E+02	 9.50263619023E-01	 1.64452108837E+02	 1.30864907496E-01	 7.79881071700E+01
	 9.81594113678E-01	-3.77936026263E+00	 1.30931992026E-01	 7.79939974839E+01	 6.71879712812E-02	 7.19054925529E+01
5.97865042662E-01	 7.01499697985E-02	 7.15286967426E+01	 1.36783036532E-01	-1.02608006250E+02	 9.79739563532E-01	-3.87170706030E+00
	 1.36789105744E-01	-1.02572863323E+02	 9.48306390789E-01	 1.63747465513E+02	 1.36701270360E-01	 7.74917073927E+01
	 9.80346086958E-01	-3.97016806700E+00	 1.36761441717E-01	 7.74467120873E+01	 7.01354686291E-02	 7.16434093710E+01
6.25991766729E-01	 7.32349969743E-02	 7.12696684512E+01	 1.42841903016E-01	-1.03132716857E+02	 9.78626308863E-01	-4.04167253501E+00
	 1.42843863652E-01	-1.03133496450E+02	 9.46310261025E-01	 1.63013748238E+02	 1.42748200570E-01	 7.69506975671E+01
	 9.79051131663E-01	-4.14281313273E+00	 1.42804183495E-01	 7.69263889307E+01	 7.32204105423E-02	 7.13826189071E+01
6.55441720205E-01	 7.64866898605E-02	 7.09617708632E+01	 1.49197656044E-01	-1.03703785420E+02	 9.77578902866E-01	-4.22650373201E+00
	 1.49197659754E-01	-1.03699957823E+02	 9.44375921145E-01	 1.62236111836E+02	 1.49114124377E-01	 7.63821860528E+01
	 9.78106392659E-01	-4.31405443010E+00	 1.49171271213E-01	 7.63546544255E+01	 7.64563979209E-02	 7.10887196836E+01
6.86277154778E-01	 7.98353655110E-02	 7.05851503939E+01	 1.55781644545E-01	-1.04296029353E+02	 9.76323947931E-01	-4.42235945213E+00
	 1.55780863255E-01	-1.04314515196E+02	 9.42411176639E-01	 1.61416507572E+02	 1.55726625492E-01	 7.57824093539E+01
	 9.76717069973E-01	-4.50658931077E+00	 1.55771871931E-01	 7.57705957352E+01	 7.98121951341E-02	 7.07315316489E+01
7.18563250784E-01	 8.32907762957E-02	 7.02020145345E+01	 1.62602309360E-01	-1.04910527170E+02	 9.74801249955E-01	-4.61213790755E+00
	 1.62594903357E-01	-1.04937757027E+02	 9.39816188240E-01	 1.60570377854E+02	 1.62522860751E-01	 7.51542299695E+01
	 9.75216595332E-01	-4.69631494570E+00	 1.62589848728E-01	 7.51532776997E+01	 8.32936410921E-02	 7.03450285470E+01
7.52368254986E-01	 8.69112627468E-02	 6.97813994884E+01	 1.69724806574E-01	-1.05554979946E+02	 9.73355733183E-01	-4.80759677103E+00
	 1.69684663978E-01	-1.05573322272E+02	 9.37534294889E-01	 1.59678301162E+02	 1.69659383556E-01	 7.45097406217E+01
	 9.73530321886E-01	-4.89626965527E+00	 1.69705866011E-01	 7.44870036179E+01	 8.69057871635E-02	 6.99147361895E+01
7.87763624836E-01	 9.06901428218E-02	 6.93197142400E+01	 1.77070411309E-01	-1.06218321455E+02	 9.71687991559E-01	-5.02541265309E+00
	 1.77064643382E-01	-1.06249095438E+02	 9.34639289120E-01	 1.58776810963E+02	 1.77000441214E-01	 7.38394118509E+01
	 9.71865270024E-01	-5.09796888879E+00	 1.77023982221E-01	 7.38248199361E+01	 9.06499617844E-02	 6.94512360341E+01
8.24824179518E-01	 9.45687123954E-02	 6.88653311964E+01	 1.84707895706E-01	-1.06921526876E+02	 9.70147982044E-01	-5.23741505769E+00
	 1.84683532414E-01	-1.06973988791E+02	 9.31883819106E-01	 1.57823821903E+02	 1.84671110358E-01	 7.31135936001E+01
	 9.70041403069E-01	-5.30431028511E+00	 1.84691735081E-01	 7.31216542770E+01	 9.45655980885E-02	 6.89855236886E+01
8.63628258107E-01	 9.86163786022E-02	 6.82893253420E+01	 1.92604392859E-01	-1.07637607300E+02	 9.68013231564E-01	-5.45656053727E+00
	 1.92595297459E-01	-1.07665711828E+02	 9.28451849959E-01	 1.56835760993E+02	 1.92582607714E-01	 7.24251750188E+01
	 9.68109060004E-01	-5.53324709056E+00	 1.92583735484E-01	 7.24042011109E+01	 9.86216537186E-02	 6.84267741911E+01
9.04257885162E-01	 1.02789849371E-01	 6.77233297854E+01	 2.00780763198E-01	-1.08396948237E+02	 9.65736426783E-01	-5.66372427926E+00
	 2.00775413177E-01	-1.08428034505E+02	 9.25016106175E-01	 1.55791093232E+02	 2.00724457796E-01	 7.16820636985E+01
	 9.66100834252E-01	-5.75527095386E+00	 2.00795407787E-01	 7.16424425942E+01	 1.02766330876E-01	 6.78815003609E+01
9.46798944108E-01	 1.07089616533E-01	 6.71214864218E+01	 2.09210417526E-01	-1.09178951285E+02	 9.63262219819E-01	-5.89612402399E+00
	 2.09240462383E-01	-1.09201603684E+02	 9.21202577609E-01	 1.54716812673E+02	 2.09173755005E-01	 7.09060431257E+01
	 9.63607518384E-01	-5.98275331160E+00	 2.09203344569E-01	 7.08548569738E+01	 1.07050326242E-01	 6.72802557863E+01
9.91341358780E-01	 1.11539987019E-01	 6.64704274441E+01	 2.17974566025E-01	-1.09973407885E+02	 9.60969035374E-01	-6.13496003305E+00
	 2.17932395155E-01	-1.10021432937E+02	 9.17245848430E-01	 1.53611087711E+02	 2.17930883590E-01	 7.01000343459E+01
	 9.61153875612E-01	-6.22075926803E+00	 2.17957420679E-01	 7.00592345025E+01	 1.11547060568E-01	 6.66357863687E+01
1.03797928350E+00	 1.16157998821E-01	 6.57811899546E+01	 2.26963786184E-01	-1.10821599478E+02	 9.58304020676E-01	-6.37262675775E+00
	 2.26948870971E-01	-1.10855372106E+02	 9.12796748011E-01	 1.52444475189E+02	 2.26938669373E-01	 6.92678117236E+01
	 9.58468542314E-01	-6.46190949736E+00	 2.26936247771E-01	 6.92157276311E+01	 1.16131308141E-01	 6.59587373759E+01
1.08681130212E+00	 1.20814708328E-01	 6.50748839269E+01	 2.36083408511E-01	-1.11664802255E+02	 9.55225073138E-01	-6.61710829575E+00
	 2.36002454091E-01	-1.11732892395E+02	 9.08163391403E-01	 1.51266309317E+02	 2.36038020289E-01	 6.83478564908E+01
	 9.55861942881E-01	-6.68492874814E+00	 2.36074951717E-01	 6.83733023841E+01	 1.20810380303E-01	 6.52154304068E+01
1.13794063638E+00	 1.25769016683E-01	 6.43024679416E+01	 2.45743359758E-01	-1.12590713392E+02	 9.52464124525E-01	-6.86169461668E+00
	 2.45729484599E-01	-1.12640721127E+02	 9.02989854006E-01	 1.49983598175E+02	 2.45762230490E-01	 6.74961152057E+01
	 9.52561717973E-01	-6.95307421079E+00	 2.45729997156E-01	 6.74465765405E+01	 1.25757766376E-01	 6.45031248812E+01
1.19147536412E+00	 1.30788379460E-01	 6.35117759026E+01	 2.55598305140E-01	-1.13531126795E+02	 9.49076351151E-01	-7.12718852499E+00
	 2.55526961514E-01	-1.13582523049E+02	 8.97680631110E-01	 1.48674168165E+02	 2.55517099490E-01	 6.65548576349E+01
	 9.49340510392E-01	-7.20887424636E+00	 2.55578150206E-01	 6.65191360691E+01	 1.30747513734E-01	 6.37214524433E+01
1.24752864774E+00	 1.35929069250E-01	 6.26722064537E+01	 2.65604290884E-01	-1.14495964151E+02	 9.45617566081E-01	-7.39251168783E+00
	 2.65612330695E-01	-1.14541849517E+02	 8.91808418052E-01	 1.47324060860E+02	 2.65636984755E-01	 6.55931485201E+01
	 9.45716724938E-01	-7.47519447783E+00	 2.65587908722E-01	 6.55578482382E+01	 1.35900311536E-01	 6.28867049581E+01
1.30621897337E+00	 1.41208575401E-01	 6.18133876757E+01	 2.75911341863E-01	-1.15485482234E+02	 9.41778906399E-01	-7.65057037841E+00
	 2.75863534482E-01	-1.15531766109E+02	 8.85626309774E-01	 1.45933274750E+02	 2.75843954808E-01	 6.46047973874E+01
	 9.41954596375E-01	-7.73036474603E+00	 2.75883583729E-01	 6.45719992386E+01	 1.41146258329E-01	 6.20262424937E+01
1.36767040140E+00	 1.46561775434E-01	 6.09063130511E+01	 2.86411301476E-01	-1.16507100799E+02	 9.37717812818E-01	-7.92196925319E+00
	 2.86366899750E-01	-1.16550259169E+02	 8.78801382151E-01	 1.44492603935E+02	 2.86369076527E-01	 6.35837385135E+01
	 9.37895191112E-01	-7.98816393955E+00	 2.86375969859E-01	 6.35491248337E+01	 1.46529767828E-01	 6.11219974795E+01
1.43201282862E+00	 1.52089501294E-01	 5.99479539080E+01	 2.97187152457E-01	-1.17568402663E+02	 9.33537183450E-01	-8.18559494050E+00
	 2.97196637222E-01	-1.17611615445E+02	 8.71972992186E-01	 1.42999270458E+02	 2.97142040298E-01	 6.25353575461E+01
	 9.33786642027E-01	-8.26195322151E+00	 2.97168183178E-01	 6.24895981274E+01	 1.52025945466E-01	 6.01918268021E+01
1.49938226288E+00	 1.57655084139E-01	 5.89680075038E+01	 3.08126747624E-01	-1.18649920055E+02	 9.29006425064E-01	-8.44303055023E+00
	 3.08018787766E-01	-1.18704137511E+02	 8.64383308187E-01	 1.41447597569E+02	 3.08013654310E-01	 6.14527566541E+01
	 9.29126046944E-01	-8.52002500687E+00	 3.08114438270E-01	 6.14201668724E+01	 1.57603441916E-01	 5.92263751064E+01
1.56992111057E+00	 1.63366698389E-01	 5.79509230165E+01	 3.19216965500E-01	-1.19769469137E+02	 9.24257143095E-01	-8.69998122100E+00
	 3.19214553072E-01	-1.19826420511E+02	 8.56311098628E-01	 1.39852209501E+02	 3.19217451210E-01	 6.03431986608E+01
	 9.24376594664E-01	-8.78803697510E+00	 3.19160041950E-01	 6.03032323042E+01	 1.63321587404E-01	 5.82275063609E+01
1.64377847759E+00	 1.69162285445E-01	 5.69014244738E+01	 3.30525516241E-01	-1.20916722001E+02	 9.19070415200E-01	-8.97072610086E+00
	 3.30481714791E-01	-1.20966982130E+02	 8.47838636492E-01	 1.38206171916E+02	 3.30419724084E-01	 5.92024320832E+01
	 9.19289221497E-01	-9.04332523900E+00	 3.30481109359E-01	 5.91642431882E+01	 1.69060804406E-01	 5.71927543915E+01
1.72111048459E+00	 1.75010940263E-01	 5.58224822119E+01	 3.41984664230E-01	-1.22089580871E+02	 9.13900966039E-01	-9.22184908929E+00
	 3.41900356658E-01	-1.22141523530E+02	 8.38997497228E-01	 1.36514576591E+02	 3.41913239169E-01	 5.80314704296E+01
	 9.14050667348E-01	-9.29631367633E+00	 3.41943637686E-01	 5.79918297000E+01	 1.74933209760E-01	 5.61212222862E+01
1.80208059697E+00	 1.80859903768E-01	 5.47073539573E+01	 3.53457292465E-01	-1.23287606244E+02	 9.08195165365E-01	-9.47623557102E+00
	 3.53380496680E-01	-1.23351759350E+02	 8.29511116974E-01	 1.34763338559E+02	 3.53405017550E-01	 5.68180091093E+01
	 9.08407450329E-01	-9.54650899472E+00	 3.53456433055E-01	 5.67987303144E+01	 1.80863713490E-01	 5.50103449568E+01
1.88685997037E+00	 1.86835596544E-01	 5.35477932746E+01	 3.65098235527E-01	-1.24532064713E+02	 9.02358708189E-01	-9.71454771526E+00
	 3.65011731747E-01	-1.24584766824E+02	 8.19484073001E-01	 1.32969549930E+02	 3.65037210653E-01	 5.56072360096E+01
	 9.02522754731E-01	-9.79547208183E+00	 3.65055137991E-01	 5.55658649548E+01	 1.86792437317E-01	 5.38832307996E+01
1.97562781253E+00	 1.92803924981E-01	 5.23740371238E+01	 3.76702780948E-01	-1.25791674597E+02	 8.96208279188E-01	-9.95519494713E+00
	 3.76645784224E-01	-1.25838005914E+02	 8.08810046480E-01	 1.31129534215E+02	 3.76678597463E-01	 5.43517397563E+01
	 8.96331475976E-01	-1.00271671473E+01	 3.76664226607E-01	 5.43102718272E+01	 1.92748306162E-01	 5.27082354199E+01
2.06857176205E+00	 1.98787566036E-01	 5.11639225186E+01	 3.88447162616E-01	-1.27078075906E+02	 8.89771092062E-01	-1.01685252588E+01
	 3.88334192069E-01	-1.27123615502E+02	 7.97914456798E-01	 1.29239388439E+02	 3.88291310322E-01	 5.30782742605E+01
	 8.90019542334E-01	-1.02527108699E+01	 3.88405788676E-01	 5.30290910721E+01	 1.98705673096E-01	 5.15186728515E+01
2.16588828503E+00	 2.04704890453E-01	 4.99240580431E+01	 4.00032564717E-01	-1.28382012886E+02	 8.83208089096E-01	-1.03729552765E+01
	 3.99934126424E-01	-1.28439976238E+02	 7.86212375518E-01	 1.27307059664E+02	 3.99967150015E-01	 5.17740300327E+01
	 8.83222974858E-01	-1.04543058732E+01	 3.99963994404E-01	 5.17292941103E+01	 2.04663055402E-01	 5.02991115836E+01
2.26778309039E+00	 2.10602005727E-01	 4.86540797203E+01	 4.11512141500E-01	-1.29732812248E+02	 8.76367979496E-01	-1.05709717797E+01
	 4.11384737121E-01	-1.29772203996E+02	 7.73909298588E-01	 1.25308853952E+02	 4.11488263371E-01	 5.04472888351E+01
	 8.76470615430E-01	-1.06581498213E+01	 4.11549441611E-01	 5.03964641893E+01	 2.10589650006E-01	 4.90603588148E+01
2.37447156467E+00	 2.16440571815E-01	 4.73516096112E+01	 4.22957849525E-01	-1.31081202050E+02	 8.69288776053E-01	-1.07536259979E+01
	 4.22770241157E-01	-1.31131111549E+02	 7.61340077595E-01	 1.23297392812E+02	 4.22813340862E-01	 4.90968203270E+01
	 8.69280777986E-01	-1.08347071478E+01	 4.22885486657E-01	 4.90492064945E+01	 2.16397122237E-01	 4.77681238093E+01
2.48617922734E+00	 2.22180271589E-01	 4.60586943467E+01	 4.34111208984E-01	-1.32444669025E+02	 8.62035258373E-01	-1.09170212497E+01
	 4.33988368749E-01	-1.32497705847E+02	 7.48105527943E-01	 1.21251270653E+02	 4.34066861083E-01	 4.77311553616E+01
	 8.62174630337E-01	-1.09916692210E+01	 4.34063856723E-01	 4.76905125189E+01	 2.22155443069E-01	 4.64780364881E+01
2.60314220747E+00	 2.27803170258E-01	 4.47286211235E+01	 4.45053596959E-01	-1.33835694508E+02	 8.54610249470E-01	-1.10384518853E+01
	 4.44924208397E-01	-1.33871065281E+02	 7.34190637252E-01	 1.19175267882E+02	 4.45005894222E-01	 4.63722515306E+01
	 8.54757619822E-01	-1.11178086039E+01	 4.45018901941E-01	 4.63142740168E+01	 2.27775779536E-01	 4.51776876971E+01
2.72560774293E+00	 2.33278878617E-01	 4.33878016887E+01	 4.55775565344E-01	-1.35227695334E+02	 8.47233801539E-01	-1.11521948072E+01
	 4.55587046267E-01	-1.35280689728E+02	 7.20221109242E-01	 1.17064426036E+02	 4.55665012929E-01	 4.49850079991E+01
	 8.47301562434E-01	-1.12386948374E+01	 4.55707870815E-01	 4.49315760846E+01	 2.33264064517E-01	 4.38705153903E+01
2.85383470291E+00	 2.38558817273E-01	 4.20404131862E+01	 4.66117940936E-01	-1.36617864288E+02	 8.39668350403E-01	-1.12301158145E+01
	 4.65818134585E-01	-1.36662640475E+02	 7.05550191864E-01	 1.14949627409E+02	 4.65886826094E-01	 4.36109606177E+01
	 8.39756374249E-01	-1.13247046186E+01	 4.66008308238E-01	 4.35425968195E+01	 2.38589036000E-01	 4.25438732195E+01
2.98809413521E+00	 2.43683087609E-01	 4.06860809737E+01	 4.76097983574E-01	-1.38020130518E+02	 8.32151396796E-01	-1.12866156196E+01
	 4.75839966911E-01	-1.38049993507E+02	 6.90666217927E-01	 1.12807163402E+02	 4.75891031413E-01	 4.22160405850E+01
	 8.32226270288E-01	-1.13781055930E+01	 4.75963772823E-01	 4.21523605281E+01	 2.43649896749E-01	 4.12220732838E+01
3.12866983915E+00	 2.48538587631E-01	 3.93474769372E+01	 4.85609602117E-01	-1.39406522090E+02	 8.24715878355E-01	-1.13273902802E+01
	 4.85400325978E-01	-1.39450641094E+02	 6.75512566144E-01	 1.10651481077E+02	 4.85454910432E-01	 4.08414196605E+01
	 8.24825827795E-01	-1.14204181012E+01	 4.85457586007E-01	 4.07729766701E+01	 2.48488846587E-01	 3.99015354357E+01
3.27585896543E+00	 2.53215078971E-01	 3.80001720179E+01	 4.94875034602E-01	-1.40778376206E+02	 8.17243436466E-01	-1.13356011650E+01
	 4.94539227395E-01	-1.40826460986E+02	 6.60252353007E-01	 1.08499186753E+02	 4.94627977270E-01	 3.94927088433E+01
	 8.17335452382E-01	-1.14369188497E+01	 4.94656287838E-01	 3.94130468178E+01	 2.53307361263E-01	 3.85781023426E+01
3.42997264432E+00	 2.57735627465E-01	 3.66948872966E+01	 5.03681248782E-01	-1.42137580698E+02	 8.09953825997E-01	-1.13171002588E+01
	 5.03266669267E-01	-1.42180790789E+02	 6.44959294975E-01	 1.06332556027E+02	 5.03378105456E-01	 3.81416385508E+01
	 8.10048092250E-01	-1.14080188023E+01	 5.03513447902E-01	 3.80695594312E+01	 2.57760973909E-01	 3.72938982952E+01
3.59133664328E+00	 2.62063192242E-01	 3.53920472242E+01	 5.11759553654E-01	-1.43474628014E+02	 8.02742469246E-01	-1.12801515012E+01
	 5.11739711851E-01	-1.43524282256E+02	 6.29563326466E-01	 1.04170106021E+02	 5.11755281681E-01	 3.68070055548E+01
	 8.02895732085E-01	-1.13710862909E+01	 5.11644256775E-01	 3.67333344292E+01	 2.62042073543E-01	 3.60145830619E+01
3.76029205561E+00	 2.66133693029E-01	 3.41048705245E+01	 5.19797215916E-01	-1.44797785853E+02	 7.95759963868E-01	-1.12131073350E+01
	 5.19649938407E-01	-1.44831624582E+02	 6.14344565186E-01	 1.01988449794E+02	 5.19780809783E-01	 3.55088872025E+01
	 7.95832182031E-01	-1.13073622549E+01	 5.19738019175E-01	 3.54222789703E+01	 2.66068474677E-01	 3.47456784509E+01
3.93719602141E+00	 2.69928729056E-01	 3.28352147595E+01	 5.27455863948E-01	-1.46092788397E+02	 7.88969669228E-01	-1.11277405562E+01
	 5.27065402170E-01	-1.46137570339E+02	 5.99255099102E-01	 9.98052616832E+01	 5.27180163694E-01	 3.42243017573E+01
	 7.89109165903E-01	-1.12281377021E+01	 5.27297401413E-01	 3.41504617478E+01	 2.69944119014E-01	 3.35348809345E+01
4.12242248255E+00	 2.73566668005E-01	 3.16009676550E+01	 5.34576076585E-01	-1.47363547537E+02	 7.82421926069E-01	-1.10329415569E+01
	 5.34236547711E-01	-1.47412619376E+02	 5.84447833547E-01	 9.76219016805E+01	 5.34346033940E-01	 3.29597284734E+01
	 7.82510817853E-01	-1.11167252226E+01	 5.34514805467E-01	 3.28930253404E+01	 2.73558068366E-01	 3.23255833673E+01
4.31636297310E+00	 2.77117549458E-01	 3.03771782027E+01	 5.41286238716E-01	-1.48601206909E+02	 7.75942811286E-01	-1.09054533148E+01
	 5.41015613928E-01	-1.48647147674E+02	 5.69602614887E-01	 9.54345344171E+01	 5.41062159063E-01	 3.17394559348E+01
	 7.76089763766E-01	-1.09989280502E+01	 5.41102497528E-01	 3.16708825107E+01	 2.77048243040E-01	 3.11463684642E+01
4.51942744694E+00	 2.80293553668E-01	 2.91911820829E+01	 5.47587107224E-01	-1.49815559238E+02	 7.69844056241E-01	-1.07721338364E+01
	 5.47357765108E-01	-1.49856484166E+02	 5.55277174006E-01	 9.32578844925E+01	 5.47475932476E-01	 3.05504553507E+01
	 7.69975532035E-01	-1.08661961277E+01	 5.47415080566E-01	 3.04734668679E+01	 2.80346322730E-01	 2.99954960555E+01
4.73204514437E+00	 2.83393669524E-01	 2.80373027849E+01	 5.53646664743E-01	-1.51006494079E+02	 7.63973131230E-01	-1.06156275538E+01
	 5.53204330557E-01	-1.51037700317E+02	 5.41334248167E-01	 9.10700700353E+01	 5.53363125264E-01	 2.93913377648E+01
	 7.64049519518E-01	-1.07149987233E+01	 5.53421209743E-01	 2.92936682663E+01	 2.83384689281E-01	 2.88647748053E+01
4.95466549939E+00	 2.86270391428E-01	 2.69173749492E+01	 5.59224388031E-01	-1.52153881264E+02	 7.58347779087E-01	-1.04460672725E+01
	 5.58967434951E-01	-1.52179022245E+02	 5.27633434832E-01	 8.88984006270E+01	 5.59132343822E-01	 2.82528993553E+01
	 7.58431060623E-01	-1.05407344371E+01	 5.59078750178E-01	 2.81680704543E+01	 2.86273660557E-01	 2.77858536339E+01
5.18775908975E+00	 2.88977576250E-01	 2.58023104291E+01	 5.64599808295E-01	-1.53261206820E+02	 7.52933477349E-01	-1.02697901854E+01
	 5.64206543235E-01	-1.53305217131E+02	 5.14460183495E-01	 8.67257508118E+01	 5.64385571805E-01	 2.71482453404E+01
	 7.53071694058E-01	-1.03757534393E+01	 5.64492546052E-01	 2.70729866667E+01	 2.88997699948E-01	 2.67244131723E+01
5.43181863168E+00	 2.91509244856E-01	 2.47418360424E+01	 5.69583657558E-01	-1.54352309410E+02	 7.47889351434E-01	-1.00900196773E+01
	 5.69140289077E-01	-1.54389947046E+02	 5.01731572586E-01	 8.45715414465E+01	 5.69355505442E-01	 2.60780954689E+01
	 7.47900495423E-01	-1.01743546611E+01	 5.69443073209E-01	 2.60092433815E+01	 2.91546744993E-01	 2.57006242307E+01
5.68736002135E+00	 2.93919015410E-01	 2.37090271932E+01	 5.74182457195E-01	-1.55403657595E+02	 7.42906748685E-01	-9.88582373345E+00
	 5.73766045599E-01	-1.55437473810E+02	 4.89297085461E-01	 8.24168609975E+01	 5.73912552125E-01	 2.50584590668E+01
	 7.43128567519E-01	-9.97258151787E+00	 5.74001465899E-01	 2.49841427973E+01	 2.93940077594E-01	 2.47112736930E+01
5.95492342542E+00	 2.96079360277E-01	 2.26945499011E+01	 5.78584848523E-01	-1.56422029043E+02	 7.38444662410E-01	-9.68709563323E+00
	 5.78073142363E-01	-1.56457719737E+02	 4.77585497458E-01	 8.02789512005E+01	 5.78272297244E-01	 2.40517519644E+01
	 7.38488791823E-01	-9.77661187742E+00	 5.78372130558E-01	 2.39760415718E+01	 2.96139120631E-01	 2.37486679240E+01
6.23507442285E+00	 2.98210353031E-01	 2.17203597221E+01	 5.82576681217E-01	-1.57403595998E+02	 7.34029447046E-01	-9.47480913766E+00
	 5.82118950482E-01	-1.57442276334E+02	 4.66255475369E-01	 7.81599131515E+01	 5.82287910489E-01	 2.30950436063E+01
	 7.34110196840E-01	-9.57364933894E+00	 5.82377078053E-01	 2.30092941896E+01	 2.98292038095E-01	 2.28177639437E+01
6.52840520039E+00	 3.00125088414E-01	 2.07713851700E+01	 5.86388801990E-01	-1.58357374952E+02	 7.29935065330E-01	-9.26778826584E+00
	 5.85865479819E-01	-1.58401909188E+02	 4.55426973998E-01	 7.60441629905E+01	 5.86129141021E-01	 2.21555368166E+01
	 7.30138342968E-01	-9.36284558680E+00	 5.86218229007E-01	 2.20776980294E+01	 3.00140128430E-01	 2.19203867947E+01
6.83553580441E+00	 3.01962060413E-01	 1.98598855765E+01	 5.89928769002E-01	-1.59282641167E+02	 7.26108036008E-01	-9.05166568683E+00
	 5.89463432876E-01	-1.59317190466E+02	 4.45168076112E-01	 7.39429345002E+01	 5.89588747673E-01	 2.12673689138E+01
	 7.26248982076E-01	-9.15210781929E+00	 5.89751311298E-01	 2.11772083565E+01	 3.01968425568E-01	 2.10626879268E+01
7.15711545149E+00	 3.03647140282E-01	 1.89721465899E+01	 5.93248575665E-01	-1.60170800578E+02	 7.22482961266E-01	-8.83387199366E+00
	 5.92747234612E-01	-1.60200389270E+02	 4.35369040020E-01	 7.18636556743E+01	 5.92917092203E-01	 2.04050506002E+01
	 7.22565140798E-01	-8.92924845254E+00	 5.93030475944E-01	 2.03176370313E+01	 3.03727652065E-01	 2.02365044029E+01
7.49382390082E+00	 3.05225543327E-01	 1.81258367313E+01	 5.96351428717E-01	-1.61028414862E+02	 7.19167252239E-01	-8.62611442932E+00
	 5.95808724854E-01	-1.61050251567E+02	 4.26062104745E-01	 6.98126340228E+01	 5.96075370347E-01	 1.95685308126E+01
	 7.19109803326E-01	-8.72017381276E+00	 5.96084479009E-01	 1.94773371950E+01	 3.05309358651E-01	 1.94259664208E+01
7.84637289102E+00	 3.06696477467E-01	 1.72935387602E+01	 5.99198100833E-01	-1.61856958328E+02	 7.16005769277E-01	-8.41578802913E+00
	 5.98624175452E-01	-1.61895696200E+02	 4.17337350548E-01	 6.77515109315E+01	 5.98895731737E-01	 1.87641461068E+01
	 7.15970799429E-01	-8.51553609574E+00	 5.98963452753E-01	 1.86835552254E+01	 3.06785316827E-01	 1.86870542956E+01
8.21550764466E+00	 3.08118878481E-01	 1.64875890082E+01	 6.01870313035E-01	-1.62651635438E+02	 7.12916188695E-01	-8.20846560810E+00
	 6.01348125420E-01	-1.62687281286E+02	 4.09068184436E-01	 6.57411940996E+01	 6.01512527428E-01	 1.79968817183E+01
	 7.13050949721E-01	-8.30960915326E+00	 6.01665112586E-01	 1.79108475035E+01	 3.08156086414E-01	 1.79398634614E+01
8.60200844352E+00	 3.09402090340E-01	 1.57189362247E+01	 6.04311033191E-01	-1.63427746267E+02	 7.10169794684E-01	-8.00439693754E+00
	 6.03935644510E-01	-1.63460765309E+02	 4.01267539517E-01	 6.37435327511E+01	 6.04105956994E-01	 1.72571926494E+01
	 7.10204946082E-01	-8.10750318071E+00	 6.04035621520E-01	 1.71678381321E+01	 3.09474380973E-01	 1.72236139185E+01
9.00669227791E+00	 3.10644075215E-01	 1.49704538010E+01	 6.06687135455E-01	-1.64175245346E+02	 7.07519510959E-01	-7.79281789351E+00
	 6.06262917192E-01	-1.64201504072E+02	 3.93997648859E-01	 6.17688008038E+01	 6.06467460899E-01	 1.65463947583E+01
	 7.07560955641E-01	-7.89139959464E+00	 6.06385238316E-01	 1.64556945430E+01	 3.10709067554E-01	 1.65611359085E+01
9.43041457372E+00	 3.11805451294E-01	 1.42488717814E+01	 6.08960944989E-01	-1.64904893179E+02	 7.05098491614E-01	-7.60135337083E+00
	 6.08371569930E-01	-1.64923671942E+02	 3.87209821919E-01	 5.98222138206E+01	 6.08625355430E-01	 1.58529232705E+01