!--------------------------------------------------
! S-parameter Generated by TDK Corporation
! Copyright(C) 2015 TDK Corporation.
! All Rights Reserved.
!--------------------------------------------------
! TDK P/N: ATB2012-75011 (Balun Transformers)
! Property: UnBal. : Bal. = 75ohm : 75ohm
! Size(LxWxT): 2x1.2x1.2mm, 0.079x0.047x0.047inches
! Model Type: s3p (Touchstone File Format Version 1.0)
! Frequency: DC=Yes Start=0.3MHz Stop=8500MHz 225points Log-sweep
! Note: 
! Model Generated on Jun. 23, 2015
! Hash(MD5):
!--------------------------------------------------
! Port Assignments:
!
!  1 ---@@@--- 3
!       ===
! GND---@@@--- 2
!
!--------------------------------------------------
! Applicable Conditions:
!   Temperature = 25 degC
!   DC Bias Current = 0 A
!   Small Signal Operation
!--------------------------------------------------
! Terms and conditions regarding TDK Simulation Models
! (1)This simulation model is being provided solely for informational purposes. Please refer to the specifications of the products in terms of detailed characteristics of such products.
! (2)In no event shall TDK Corporation of any of its subsidiaries be liable for any loss or damage arising, directly or indirectly, 
!    From any information contained in this simulation model, including, but not limited to loss or damages arising from any inaccuracies, omissions or errors in connection with such information.
! (3)Any and all copyrights on this simulation model are owned by TDK Corporation.
!    Duplication or redistribution of this simulation model without prior written permission from TDK Corporation is prohibited.
! (4)This simulation model is subject to any modification or change without any prior notice.
! (5)Neither TDK Corporation nor any of its subsidiaries shall make any warranty, express or implied, 
!    Including but not limited to the correctness, implied warranties of merchantability and fitness for a particular purpose with respect to this simulation models.
! (6)The use of this simulation model shall be deemed to have consented to the terms and conditions hereof.
!--------------------------------------------------
# MHz S MA R 50
0.00000000000E+00	 6.35135183742E-03	 0.00000000000E+00	 6.27123011012E-10	 0.00000000000E+00	 9.93648548163E-01	 0.00000000000E+00
	 6.27123011012E-10	 0.00000000000E+00	 9.74754735478E-01	 0.00000000000E+00	 6.35140151986E-10	 0.00000000000E+00
	 9.93648548163E-01	 0.00000000000E+00	 6.35140151986E-10	 0.00000000000E+00	 6.35135183742E-03	 0.00000000000E+00
3.00000000000E-01	 2.01776185635E-02	 6.83016398219E+01	 3.74728215132E-02	-9.36767397600E+01	 9.92009628691E-01	-9.78641561676E-01
	 3.72862735045E-02	-9.37786776030E+01	 9.74849434144E-01	 1.75689081961E+02	 3.72302405731E-02	 8.62132334948E+01
	 9.93448521415E-01	-1.10163110686E+00	 3.72202018120E-02	 8.62845181013E+01	 2.00703913253E-02	 6.86024537941E+01
3.14113581859E-01	 2.09895440979E-02	 6.86086547304E+01	 3.91601424074E-02	-9.38817011680E+01	 9.91677316310E-01	-1.04200128032E+00
	 3.89804670833E-02	-9.40145588505E+01	 9.74466866889E-01	 1.75470298194E+02	 3.89644076861E-02	 8.60314809034E+01
	 9.93341344770E-01	-1.15083682391E+00	 3.89688648926E-02	 8.61573085535E+01	 2.09524884490E-02	 6.87960374649E+01
3.28891141027E-01	 2.18469821721E-02	 6.92024905756E+01	 4.09560594732E-02	-9.41379340728E+01	 9.91749463734E-01	-1.11135002839E+00
	 4.07779006806E-02	-9.41912973086E+01	 9.74339988948E-01	 1.75253036529E+02	 4.07214078308E-02	 8.58770874465E+01
	 9.93132943008E-01	-1.20887157373E+00	 4.07439527501E-02	 8.59643890453E+01	 2.18084060055E-02	 6.93552905812E+01
3.44363914499E-01	 2.27846595491E-02	 6.95942379002E+01	 4.28051668954E-02	-9.43102905505E+01	 9.91417738658E-01	-1.15688362685E+00
	 4.26385331983E-02	-9.43925276539E+01	 9.74120208755E-01	 1.75031455741E+02	 4.25827503493E-02	 8.56521059604E+01
	 9.93116889058E-01	-1.26819222665E+00	 4.26343943647E-02	 8.57986944195E+01	 2.27475583904E-02	 6.98099456821E+01
3.60564608821E-01	 2.36986968584E-02	 7.00136103546E+01	 4.47533161647E-02	-9.45102507361E+01	 9.91345969071E-01	-1.22784350764E+00
	 4.45592379170E-02	-9.45200084201E+01	 9.73927796183E-01	 1.74801803938E+02	 4.45534397112E-02	 8.54802832087E+01
	 9.92909642302E-01	-1.32874494198E+00	 4.45871800248E-02	 8.55785025633E+01	 2.37217766638E-02	 7.01851395624E+01
3.77527469228E-01	 2.47577338313E-02	 7.03635398264E+01	 4.67879366043E-02	-9.47044713753E+01	 9.91332381567E-01	-1.28822133261E+00
	 4.66163406627E-02	-9.47141951366E+01	 9.73715348015E-01	 1.74556160162E+02	 4.65863914087E-02	 8.53285341441E+01
	 9.92633793155E-01	-1.39053413896E+00	 4.66269118371E-02	 8.53857702126E+01	 2.47127985588E-02	 7.06508219294E+01
3.95288352031E-01	 2.57983666050E-02	 7.08408166279E+01	 4.89188751303E-02	-9.48931315389E+01	 9.91162894511E-01	-1.35101192885E+00
	 4.87836984547E-02	-9.48846340734E+01	 9.73635092089E-01	 1.74294543350E+02	 4.87320467665E-02	 8.51329002244E+01
	 9.92476008199E-01	-1.45145973879E+00	 4.87925530347E-02	 8.51980242603E+01	 2.57863601366E-02	 7.10676798979E+01
4.13884800412E-01	 2.69002775127E-02	 7.12315730863E+01	 5.11296779167E-02	-9.50939999052E+01	 9.91086778240E-01	-1.41414127291E+00
	 5.10356302624E-02	-9.51187536981E+01	 9.73061310409E-01	 1.74017044088E+02	 5.09887571696E-02	 8.49611445252E+01
	 9.92146393623E-01	-1.54487991205E+00	 5.10418475579E-02	 8.50073646708E+01	 2.68834248921E-02	 7.14185288577E+01
4.33356123781E-01	 2.80603367514E-02	 7.16640360865E+01	 5.34517761308E-02	-9.52985695643E+01	 9.90874393266E-01	-1.48215399850E+00
	 5.33783643953E-02	-9.53150503549E+01	 9.72639451342E-01	 1.73745249851E+02	 5.33355478517E-02	 8.47218966592E+01
	 9.92148423251E-01	-1.57696957173E+00	 5.33795802419E-02	 8.48038674867E+01	 2.80759564832E-02	 7.18596644879E+01
4.53743480871E-01	 2.92712959355E-02	 7.21790736464E+01	 5.59418715455E-02	-9.55108767307E+01	 9.90721049634E-01	-1.55663854522E+00
	 5.58631681645E-02	-9.55407952850E+01	 9.72886926087E-01	 1.73442293645E+02	 5.57963363390E-02	 8.44625029965E+01
	 9.92107251298E-01	-1.63689079855E+00	 5.58880041705E-02	 8.45833311792E+01	 2.92978679581E-02	 7.23029771347E+01
4.75089966739E-01	 3.05950018616E-02	 7.23623184799E+01	 5.85044714916E-02	-9.57352731515E+01	 9.90597247158E-01	-1.63342280549E+00
	 5.84114940941E-02	-9.57290744500E+01	 9.72192604935E-01	 1.73140082794E+02	 5.83860437014E-02	 8.42599221276E+01
	 9.91733853796E-01	-1.71342261918E+00	 5.84325023677E-02	 8.43537289390E+01	 3.05869929595E-02	 7.25121806287E+01
4.97440703859E-01	 3.19008600111E-02	 7.27188715429E+01	 6.11986650483E-02	-9.59717622310E+01	 9.90023617720E-01	-1.69090376770E+00
	 6.11244525174E-02	-9.59684609134E+01	 9.72140596373E-01	 1.72821959861E+02	 6.10582413797E-02	 8.40698048572E+01
	 9.91529433000E-01	-1.78843730949E+00	 6.11430016824E-02	 8.41062383971E+01	 3.19194901400E-02	 7.27978951696E+01
5.20842937505E-01	 3.33291859291E-02	 7.28849717883E+01	 6.39766841273E-02	-9.62013551662E+01	 9.90315117942E-01	-1.79719257958E+00
	 6.39379248879E-02	-9.62016145224E+01	 9.71007504621E-01	 1.72500193035E+02	 6.39105208262E-02	 8.38515280064E+01
	 9.90950115492E-01	-1.90326324416E+00	 6.39272219521E-02	 8.38852318389E+01	 3.33360856485E-02	 7.29853330863E+01
5.45346135619E-01	 3.48112042668E-02	 7.01346379423E+01	 6.63541528682E-02	-9.72489251108E+01	 9.79889069463E-01	-2.06194281054E+00
	 6.62371275128E-02	-9.75488002680E+01	 9.59887184951E-01	 1.72611103543E+02	 6.59744318173E-02	 8.25658469213E+01
	 9.87232602231E-01	-1.95065968762E+00	 6.62812569936E-02	 8.30054731799E+01	 3.43015910833E-02	 7.25694653324E+01
5.71002093374E-01	 3.63451849976E-02	 7.33171134111E+01	 6.99938780995E-02	-9.67242821552E+01	 9.89549038705E-01	-1.96534539793E+00
	 6.99470968442E-02	-9.67317520710E+01	 9.70563050496E-01	 1.71774026562E+02	 6.99367548835E-02	 8.33165104743E+01
	 9.90535212421E-01	-2.06840212283E+00	 7.00011847996E-02	 8.33464272501E+01	 3.63647657251E-02	 7.34483980175E+01
5.97865042662E-01	 3.79552660692E-02	 7.34314505771E+01	 7.32100305906E-02	-9.69980305400E+01	 9.89261001792E-01	-2.05723979444E+00
	 7.32072548180E-02	-9.70133888089E+01	 9.69685736334E-01	 1.71384301581E+02	 7.31687638878E-02	 8.30761048469E+01
	 9.89994678805E-01	-2.19221971256E+00	 7.31991108729E-02	 8.30325299824E+01	 3.79868612931E-02	 7.35727531691E+01
6.25991766729E-01	 3.96695766524E-02	 7.35867600274E+01	 7.65714472511E-02	-9.72934499985E+01	 9.89396123555E-01	-2.16833092330E+00
	 7.65555873229E-02	-9.73006980252E+01	 9.68882970420E-01	 1.70996394272E+02	 7.65384973502E-02	 8.27570400197E+01
	 9.89627506960E-01	-2.26932696768E+00	 7.65514518415E-02	 8.27577939002E+01	 3.97045998724E-02	 7.36762186800E+01
6.55441720205E-01	 4.14578718118E-02	 7.37837351116E+01	 8.00933571374E-02	-9.75903901992E+01	 9.89157526712E-01	-2.28633111122E+00
	 8.01092918737E-02	-9.76253278190E+01	 9.68355329308E-01	 1.70577437414E+02	 8.01045060417E-02	 8.24228183221E+01
	 9.89342915706E-01	-2.36832236652E+00	 8.01118641368E-02	 8.24392381658E+01	 4.15117055531E-02	 7.38476046729E+01
6.86277154778E-01	 4.33029681407E-02	 7.37939886930E+01	 8.37691132014E-02	-9.79189377149E+01	 9.88676841086E-01	-2.39236860430E+00
	 8.37876033960E-02	-9.79614640528E+01	 9.67613598339E-01	 1.70133233836E+02	 8.38018172810E-02	 8.21075283814E+01
	 9.88982368140E-01	-2.48325079381E+00	 8.37959816997E-02	 8.21154106457E+01	 4.33593698313E-02	 7.38820697404E+01
7.18563250784E-01	 4.52947543717E-02	 7.38032034371E+01	 8.76173786252E-02	-9.82681913927E+01	 9.88062019102E-01	-2.49203883799E+00
	 8.76420330827E-02	-9.83208307793E+01	 9.66747970044E-01	 1.69665305802E+02	 8.76035779824E-02	 8.17627039013E+01
	 9.88670305201E-01	-2.58880730716E+00	 8.76228460936E-02	 8.17793120782E+01	 4.52979004686E-02	 7.39048577947E+01
7.52368254986E-01	 4.73215753192E-02	 7.37602441618E+01	 9.16592911117E-02	-9.86197574032E+01	 9.87531666530E-01	-2.61053983135E+00
	 9.16544807190E-02	-9.86685398068E+01	 9.65818975082E-01	 1.69184859926E+02	 9.16274401170E-02	 8.14022753157E+01
	 9.87959509320E-01	-2.70947269949E+00	 9.16365969162E-02	 8.13918991138E+01	 4.73341472333E-02	 7.38645367825E+01
7.87763624836E-01	 4.94611488191E-02	 7.37410926183E+01	 9.58504200381E-02	-9.89811335474E+01	 9.87166536671E-01	-2.73508584119E+00
	 9.58774677644E-02	-9.90422872275E+01	 9.65171668528E-01	 1.68686178017E+02	 9.58312120404E-02	 8.10160900336E+01
	 9.87395622442E-01	-2.82901039338E+00	 9.58521457665E-02	 8.10349676099E+01	 4.94368714886E-02	 7.38174122691E+01
8.24824179518E-01	 5.17076969665E-02	 7.36863650693E+01	 1.00246926677E-01	-9.93858036560E+01	 9.86432306205E-01	-2.86306907517E+00
	 1.00253466799E-01	-9.94558026085E+01	 9.64466420847E-01	 1.68157925814E+02	 1.00199995170E-01	 8.05972188600E+01
	 9.86959121912E-01	-2.94668708732E+00	 1.00238001763E-01	 8.06184271877E+01	 5.16666119974E-02	 7.37480163659E+01
8.63628258107E-01	 5.40201335855E-02	 7.35635430197E+01	 1.04799188469E-01	-9.97946570921E+01	 9.85884171131E-01	-2.99627600580E+00
	 1.04844415145E-01	-9.98444243753E+01	 9.63218136967E-01	 1.67610858295E+02	 1.04802350552E-01	 8.02160307804E+01
	 9.86317902512E-01	-3.08990896802E+00	 1.04813292891E-01	 8.02153308956E+01	 5.40170032294E-02	 7.36309483722E+01
9.04257885162E-01	 5.64349497298E-02	 7.34476102220E+01	 1.09590283829E-01	-1.00210492641E+02	 9.85229172800E-01	-3.12266940056E+00
	 1.09598392440E-01	-1.00263699631E+02	 9.61902624794E-01	 1.67039052011E+02	 1.09587223682E-01	 7.98072663619E+01
	 9.85637476582E-01	-3.22264041173E+00	 1.09579714423E-01	 7.97802559313E+01	 5.64397122338E-02	 7.35341433545E+01
9.46798944108E-01	 5.89793171978E-02	 7.32721018793E+01	 1.14550186761E-01	-1.00680160119E+02	 9.84229850342E-01	-3.26732708469E+00
	 1.14611942814E-01	-1.00726988639E+02	 9.60651695699E-01	 1.66430935158E+02	 1.14567331671E-01	 7.93576026265E+01
	 9.84869416665E-01	-3.36717963974E+00	 1.14557121207E-01	 7.93143148281E+01	 5.89390934716E-02	 7.33601133765E+01
9.91341358780E-01	 6.16121061426E-02	 7.31002340013E+01	 1.19794579606E-01	-1.01129246937E+02	 9.83605375202E-01	-3.41413991104E+00
	 1.19792608295E-01	-1.01195988789E+02	 9.59251792713E-01	 1.65805116352E+02	 1.19766100996E-01	 7.88795127433E+01
	 9.84066289872E-01	-3.51346122921E+00	 1.19769176284E-01	 7.88665683130E+01	 6.16111222332E-02	 7.31671943849E+01
1.03797928350E+00	 6.43765318339E-02	 7.28534857702E+01	 1.25167964544E-01	-1.01622932002E+02	 9.82616394921E-01	-3.57232124987E+00
	 1.25209376638E-01	-1.01673149053E+02	 9.57519863450E-01	 1.65168355348E+02	 1.25151935321E-01	 7.84161086891E+01
	 9.83023376286E-01	-3.67736813747E+00	 1.25163464277E-01	 7.83711880290E+01	 6.43374190204E-02	 7.29453139160E+01
1.08681130212E+00	 6.72045977146E-02	 7.26197139876E+01	 1.30870328965E-01	-1.02126956795E+02	 9.81742706059E-01	-3.73225898371E+00
	 1.30743905480E-01	-1.02214636946E+02	 9.56105333038E-01	 1.64472329555E+02	 1.30783353755E-01	 7.78397259527E+01
	 9.82395488319E-01	-3.82161203433E+00	 1.30868926009E-01	 7.78712402766E+01	 6.72070093192E-02	 7.26572918962E+01
1.13794063638E+00	 7.02484888936E-02	 7.22727963496E+01	 1.36709712386E-01	-1.02659918667E+02	 9.80867359946E-01	-3.89022056321E+00
	 1.36739574760E-01	-1.02742873275E+02	 9.54344462484E-01	 1.63767394792E+02	 1.36740242827E-01	 7.73650514846E+01
	 9.81114617409E-01	-4.00337254779E+00	 1.36704523282E-01	 7.73396685686E+01	 7.02215152283E-02	 7.23989024986E+01
1.19147536412E+00	 7.33887064770E-02	 7.19833124631E+01	 1.42865713995E-01	-1.03223543281E+02	 9.79597137050E-01	-4.07962716247E+00
	 1.42868188157E-01	-1.03296424934E+02	 9.52472859756E-01	 1.63006670848E+02	 1.42854376183E-01	 7.67972587865E+01
	 9.79969741275E-01	-4.16624766109E+00	 1.42858232652E-01	 7.67761558899E+01	 7.33554973959E-02	 7.20695501093E+01
1.24752864774E+00	 7.66386690089E-02	 7.16095620550E+01	 1.49212314839E-01	-1.03812082869E+02	 9.78450716162E-01	-4.26618018984E+00
	 1.49266218786E-01	-1.03879374520E+02	 9.50295022298E-01	 1.62221431564E+02	 1.49245363470E-01	 7.62063754682E+01
	 9.78687416365E-01	-4.34624730995E+00	 1.49198940344E-01	 7.61960489678E+01	 7.65941651549E-02	 7.17125411858E+01
1.30621897337E+00	 8.00486094831E-02	 7.12101030606E+01	 1.55868934951E-01	-1.04398795014E+02	 9.76991318673E-01	-4.44329509605E+00
	 1.55891083113E-01	-1.04486012528E+02	 9.48087305118E-01	 1.61414907932E+02	 1.55855445848E-01	 7.56107800913E+01
	 9.77312997046E-01	-4.53935157352E+00	 1.55866129502E-01	 7.55989330015E+01	 7.99873123801E-02	 7.13165814704E+01
1.36767040140E+00	 8.35398314509E-02	 7.07798015944E+01	 1.62748963546E-01	-1.05044506106E+02	 9.75597931435E-01	-4.65096078194E+00
	 1.62776059004E-01	-1.05109193741E+02	 9.45445212743E-01	 1.60569298183E+02	 1.62774547219E-01	 7.49671949509E+01
	 9.75801514141E-01	-4.72759181882E+00	 1.62743786882E-01	 7.49649425540E+01	 8.35053813509E-02	 7.08731103931E+01
1.43201282862E+00	 8.72260389126E-02	 7.02994960067E+01	 1.69955966347E-01	-1.05703631404E+02	 9.74075818133E-01	-4.84629968858E+00
	 1.69978347851E-01	-1.05770237726E+02	 9.42947358004E-01	 1.59689229718E+02	 1.69967365624E-01	 7.43222880524E+01
	 9.74360292475E-01	-4.93076447693E+00	 1.69931168381E-01	 7.43039566984E+01	 8.71710340945E-02	 7.04301453324E+01
1.49938226288E+00	 9.10272725154E-02	 6.98029032302E+01	 1.77410622452E-01	-1.06391670686E+02	 9.72396499859E-01	-5.05808739306E+00
	 1.77414667295E-01	-1.06472247881E+02	 9.39953672315E-01	 1.58753307438E+02	 1.77392155647E-01	 7.36278166547E+01
	 9.72632161713E-01	-5.14055938260E+00	 1.77386895615E-01	 7.36186045392E+01	 9.09575611833E-02	 6.99155903955E+01
1.56992111057E+00	 9.49940402913E-02	 6.92412374307E+01	 1.85150905646E-01	-1.07115607873E+02	 9.70517806361E-01	-5.26153242257E+00
	 1.85178599242E-01	-1.07194115600E+02	 9.36877868030E-01	 1.57785730238E+02	 1.85170329000E-01	 7.29224250334E+01
	 9.70604222846E-01	-5.35398956100E+00	 1.85115024463E-01	 7.28962320414E+01	 9.49219389109E-02	 6.93773416480E+01
1.64377847759E+00	 9.90640664929E-02	 6.86589057518E+01	 1.93145462206E-01	-1.07873748220E+02	 9.68361680658E-01	-5.49337072356E+00
	 1.93154168793E-01	-1.07942725939E+02	 9.33125023048E-01	 1.56776448802E+02	 1.93181329005E-01	 7.21583096565E+01
	 9.68631992810E-01	-5.56892184882E+00	 1.93127873791E-01	 7.21406103792E+01	 9.90181844021E-02	 6.88028314463E+01
1.72111048459E+00	 1.03329390515E-01	 6.80370499893E+01	 2.01478868238E-01	-1.08655355431E+02	 9.66293398370E-01	-5.71164826780E+00
	 2.01510164451E-01	-1.08735070522E+02	 9.29667876190E-01	 1.55729638616E+02	 2.01513223604E-01	 7.13863420603E+01
	 9.66452998825E-01	-5.80348550496E+00	 2.01464536741E-01	 7.13634068434E+01	 1.03265127197E-01	 6.81985974083E+01
1.80208059697E+00	 1.07709377580E-01	 6.73566694259E+01	 2.10077423702E-01	-1.09468085998E+02	 9.63752135219E-01	-5.94696649930E+00
	 2.10091030274E-01	-1.09565020154E+02	 9.25596942530E-01	 1.54625049859E+02	 2.10115612262E-01	 7.05558104338E+01
	 9.63906494851E-01	-6.03848423743E+00	 2.10066351323E-01	 7.05481123758E+01	 1.07677832051E-01	 6.75235126818E+01
1.88685997037E+00	 1.12286606280E-01	 6.66522700739E+01	 2.18967503115E-01	-1.10334882403E+02	 9.61298839603E-01	-6.18933118319E+00
	 2.19008882373E-01	-1.10412802912E+02	 9.21020409420E-01	 1.53484078262E+02	 2.19036624438E-01	 6.97048058314E+01
	 9.61377652142E-01	-6.27574505045E+00	 2.18949502019E-01	 6.96911628310E+01	 1.12231107281E-01	 6.68245199766E+01
1.97562781253E+00	 1.16973383179E-01	 6.58939113996E+01	 2.28171962497E-01	-1.11232712474E+02	 9.58378015997E-01	-6.43281812547E+00
	 2.28171180330E-01	-1.11315019875E+02	 9.16097292809E-01	 1.52299683002E+02	 2.28211014202E-01	 6.88128170746E+01
	 9.58430526145E-01	-6.51948597632E+00	 2.28130773620E-01	 6.87916506633E+01	 1.16914402302E-01	 6.60720058696E+01
2.06857176205E+00	 1.21828046433E-01	 6.50880157338E+01	 2.37660655206E-01	-1.12180520558E+02	 9.55282187594E-01	-6.67897157836E+00
	 2.37660331659E-01	-1.12255566027E+02	 9.11023002804E-01	 1.51062884064E+02	 2.37668778714E-01	 6.78757518891E+01
	 9.55521553782E-01	-6.77022618068E+00	 2.37654963009E-01	 6.78458003320E+01	 1.21761599338E-01	 6.52763531288E+01
2.16588828503E+00	 1.26818425406E-01	 6.42366907812E+01	 2.47391385581E-01	-1.13161900748E+02	 9.52037076057E-01	-6.92665427898E+00
	 2.47420776390E-01	-1.13237763478E+02	 9.05108290410E-01	 1.49779881326E+02	 2.47396894346E-01	 6.68885240011E+01
	 9.52220176721E-01	-7.02010397150E+00	 2.47336840147E-01	 6.68629887872E+01	 1.26729090067E-01	 6.44290234255E+01
2.26778309039E+00	 1.31886166990E-01	 6.33556412484E+01	 2.57358758662E-01	-1.14195190927E+02	 9.48538716814E-01	-7.19575638809E+00
	 2.57343587126E-01	-1.14267732776E+02	 8.98564891871E-01	 1.48442642548E+02	 2.57350663470E-01	 6.58731839060E+01
	 9.48748626820E-01	-7.27026184554E+00	 2.57354806318E-01	 6.58460872008E+01	 1.31818276421E-01	 6.35772029169E+01
2.37447156467E+00	 1.37098867945E-01	 6.23751024439E+01	 2.67521681968E-01	-1.15261815355E+02	 9.44731070200E-01	-7.44831953230E+00
	 2.67484750560E-01	-1.15342972462E+02	 8.91683131629E-01	 1.47077565203E+02	 2.67542950470E-01	 6.48050987133E+01
	 9.44779354066E-01	-7.54604039898E+00	 2.67479748564E-01	 6.47744428346E+01	 1.37031414282E-01	 6.25984285366E+01
2.48617922734E+00	 1.42412355730E-01	 6.13755175853E+01	 2.77912685656E-01	-1.16372952580E+02	 9.40557962669E-01	-7.70954806831E+00
	 2.77856808593E-01	-1.16451009100E+02	 8.84172304711E-01	 1.45662728340E+02	 2.77858539209E-01	 6.36932307220E+01
	 9.40693360986E-01	-7.79559780593E+00	 2.77847363365E-01	 6.36727008700E+01	 1.42345527465E-01	 6.15964997972E+01
2.60314220747E+00	 1.47803883966E-01	 6.03269697994E+01	 2.88435052181E-01	-1.17530448570E+02	 9.36117994927E-01	-7.96611975598E+00
	 2.88412904711E-01	-1.17601546809E+02	 8.76049105420E-01	 1.44207741280E+02	 2.88391323442E-01	 6.25480455267E+01
	 9.36373220970E-01	-8.04609891769E+00	 2.88386677949E-01	 6.25228277497E+01	 1.47702176523E-01	 6.05679974658E+01
2.72560774293E+00	 1.53230753202E-01	 5.92380168763E+01	 2.99055304571E-01	-1.18719741103E+02	 9.31521675507E-01	-8.20386834919E+00
	 2.99006483888E-01	-1.18807523623E+02	 8.67331794603E-01	 1.42703189740E+02	 2.99028189345E-01	 6.13661869412E+01
	 9.31697190314E-01	-8.30542598566E+00	 2.99005635629E-01	 6.13362559492E+01	 1.53153554450E-01	 5.95126313913E+01
2.85383470291E+00	 1.58726437634E-01	 5.80981459505E+01	 3.09742652977E-01	-1.19951065821E+02	 9.26542549502E-01	-8.45005131323E+00
	 3.09658112218E-01	-1.20026901043E+02	 8.57686118178E-01	 1.41164419746E+02	 3.09681058856E-01	 6.01414794189E+01
	 9.26715259416E-01	-8.55306125821E+00	 3.09670721818E-01	 6.01020009182E+01	 1.58647682468E-01	 5.83635420131E+01
2.98809413521E+00	 1.64216583918E-01	 5.69527942549E+01	 3.20548918191E-01	-1.21221967794E+02	 9.21478341669E-01	-8.68659398477E+00
	 3.20466140547E-01	-1.21281327368E+02	 8.47723322064E-01	 1.39580543656E+02	 3.20550859205E-01	 5.88970802791E+01
	 9.21505870997E-01	-8.78271876021E+00	 3.20483179701E-01	 5.88398096199E+01	 1.64167883210E-01	 5.72422743279E+01
3.12866983915E+00	 1.69760361477E-01	 5.57416290675E+01	 3.31275510313E-01	-1.22491635592E+02	 9.15986325595E-01	-8.91543907765E+00
	 3.31225478127E-01	-1.22570758908E+02	 8.36925926091E-01	 1.37986546388E+02	 3.31242334720E-01	 5.76133182918E+01
	 9.16070099353E-01	-9.02298783788E+00	 3.31182074313E-01	 5.75717966300E+01	 1.69682842053E-01	 5.60457820075E+01
3.27585896543E+00	 1.75277958158E-01	 5.45178536072E+01	 3.42051353351E-01	-1.23802736512E+02	 9.10336127833E-01	-9.14345585804E+00
	 3.41953098150E-01	-1.23880908528E+02	 8.25594947446E-01	 1.36333509337E+02	 3.41965114384E-01	 5.63090045396E+01
	 9.10359618539E-01	-9.24030292648E+00	 3.41940794954E-01	 5.62644725497E+01	 1.75196287968E-01	 5.48222598411E+01
3.42997264432E+00	 1.80758782469E-01	 5.32748677217E+01	 3.52818359469E-01	-1.25136430670E+02	 9.04478966116E-01	-9.34440485407E+00
	 3.52651483341E-01	-1.25204392869E+02	 8.13780182332E-01	 1.34668749270E+02	 3.52733812626E-01	 5.49966540863E+01
	 9.04484721628E-01	-9.44525603463E+00	 3.52730837570E-01	 5.49414572655E+01	 1.80705111345E-01	 5.36135142292E+01
3.59133664328E+00	 1.86237764159E-01	 5.19988570307E+01	 3.63365379652E-01	-1.26481022901E+02	 8.98327746535E-01	-9.53764338200E+00
	 3.63402852086E-01	-1.26554599496E+02	 8.01444736136E-01	 1.32957943563E+02	 3.63411266327E-01	 5.36555337665E+01
	 8.98419950865E-01	-9.65024572924E+00	 3.63258243362E-01	 5.35952877081E+01	 1.86131511674E-01	 5.23454887092E+01
3.76029205561E+00	 1.91636696728E-01	 5.07160821251E+01	 3.73925161491E-01	-1.27828222079E+02	 8.92134372739E-01	-9.72248606083E+00
	 3.73912819775E-01	-1.27899117326E+02	 7.88508406959E-01	 1.31247963062E+02	 3.73988194013E-01	 5.23152181707E+01
	 8.92078167888E-01	-9.83278817061E+00	 3.73806394652E-01	 5.22580299700E+01	 1.91571981219E-01	 5.10794083832E+01
3.93719602141E+00	 1.96964449683E-01	 4.94451668953E+01	 3.84412256784E-01	-1.29200493831E+02	 8.85730514114E-01	-9.89225477140E+00
	 3.84281892469E-01	-1.29266076699E+02	 7.75099740732E-01	 1.29476179131E+02	 3.84374449234E-01	 5.09522917700E+01
	 8.85762263537E-01	-9.99388377378E+00	 3.84284657133E-01	 5.08950894534E+01	 1.96899307144E-01	 4.98190804039E+01
4.12242248255E+00	 2.02232899585E-01	 4.81532990651E+01	 3.94670015421E-01	-1.30573556051E+02	 8.79247378729E-01	-1.00435981206E+01
	 3.94582588718E-01	-1.30637433285E+02	 7.61303849944E-01	 1.27689816299E+02	 3.94702340636E-01	 4.95907369547E+01
	 8.79215774584E-01	-1.01409779386E+01	 3.94514051546E-01	 4.95347522225E+01	 2.02160009182E-01	 4.85536095221E+01
4.31636297310E+00	 2.07461494233E-01	 4.68199194056E+01	 4.04806792901E-01	-1.31944842534E+02	 8.72463505830E-01	-1.01720964075E+01
	 4.04650004761E-01	-1.32008439461E+02	 7.47208351166E-01	 1.25885037501E+02	 4.04726313626E-01	 4.82384410395E+01
	 8.72487457280E-01	-1.02835057812E+01	 4.04645956143E-01	 4.81718637485E+01	 2.07371701308E-01	 4.72452155748E+01
4.51942744694E+00	 2.12510055264E-01	 4.55188588075E+01	 4.14684283140E-01	-1.33304717278E+02	 8.65763443534E-01	-1.02996486770E+01
	 4.14516761828E-01	-1.33371987233E+02	 7.32765469629E-01	 1.24071584697E+02	 4.14621313358E-01	 4.68660078468E+01
	 8.65765996594E-01	-1.04041836760E+01	 4.14531460343E-01	 4.68139236691E+01	 2.12452453795E-01	 4.59418762090E+01
4.73204514437E+00	 2.17463529885E-01	 4.42180424123E+01	 4.24346409405E-01	-1.34678042868E+02	 8.59027602376E-01	-1.04001534984E+01
	 4.24129582067E-01	-1.34734495541E+02	 7.18030597792E-01	 1.22218409425E+02	 4.24239653382E-01	 4.55153845975E+01
	 8.58976781040E-01	-1.05039527396E+01	 4.24175077153E-01	 4.54500214502E+01	 2.17403642281E-01	 4.46633279198E+01
4.95466549939E+00	 2.22331275143E-01	 4.29305769449E+01	 4.33804535489E-01	-1.36032917769E+02	 8.52227694078E-01	-1.04794663143E+01
	 4.33599095473E-01	-1.36084545873E+02	 7.03092062379E-01	 1.20362039981E+02	 4.33729788639E-01	 4.41752692094E+01
	 8.52169533341E-01	-1.05839887673E+01	 4.33617507039E-01	 4.41054790942E+01	 2.22281446807E-01	 4.33986664540E+01
5.18775908975E+00	 2.27028042642E-01	 4.16411190928E+01	 4.42980768076E-01	-1.37365468923E+02	 8.45408562007E-01	-1.05449514207E+01
	 4.42785428727E-01	-1.37438243270E+02	 6.87838887231E-01	 1.18488253999E+02	 4.42920953050E-01	 4.28380683925E+01
	 8.45393746826E-01	-1.06594374738E+01	 4.42819935717E-01	 4.27784611525E+01	 2.27042632991E-01	 4.21318345499E+01
5.43181863168E+00	 2.31605071757E-01	 4.03574576074E+01	 4.51869741691E-01	-1.38707854384E+02	 8.38630784190E-01	-1.05895859037E+01
	 4.51652580092E-01	-1.38769056978E+02	 6.72670175297E-01	 1.16585546234E+02	 4.51756354393E-01	 4.15200474671E+01
	 8.38654066800E-01	-1.06967117630E+01	 4.51641531324E-01	 4.14524438754E+01	 2.31538557064E-01	 4.08819481214E+01
5.68736002135E+00	 2.36093133449E-01	 3.91021719257E+01	 4.60507684088E-01	-1.40024475681E+02	 8.31842457146E-01	-1.06183592905E+01
	 4.60301848076E-01	-1.40082351508E+02	 6.57348368239E-01	 1.14685617852E+02	 4.60423621999E-01	 4.02061313865E+01
	 8.31908563443E-01	-1.07151299281E+01	 4.60350248649E-01	 4.01481272541E+01	 2.36024893596E-01	 3.96390753434E+01
5.95492342542E+00	 2.40349500139E-01	 3.78589278325E+01	 4.69008367285E-01	-1.41317644212E+02	 8.25244124649E-01	-1.06206946632E+01
	 4.68609686040E-01	-1.41369583676E+02	 6.42358802218E-01	 1.12761143862E+02	 4.68706255506E-01	 3.89125243808E+01
	 8.25260917210E-01	-1.07235495766E+01	 4.68713745957E-01	 3.88551358118E+01	 2.40247615350E-01	 3.84110843967E+01
6.23507442285E+00	 2.44424203104E-01	 3.66240894328E+01	 4.76946632045E-01	-1.42582068987E+02	 8.18723385421E-01	-1.06099930736E+01
	 4.76654145913E-01	-1.42649964704E+02	 6.27003911843E-01	 1.10844474387E+02	 4.76779711101E-01	 3.76557158251E+01
	 8.18684313858E-01	-1.07140236065E+01	 4.76631311341E-01	 3.75943682346E+01	 2.44402275810E-01	 3.72054045537E+01
6.52840520039E+00	 2.48351615850E-01	 3.54114543807E+01	 4.84707859575E-01	-1.43854246524E+02	 8.12349547316E-01	-1.05877953953E+01
	 4.84364762175E-01	-1.43909049356E+02	 6.11936816356E-01	 1.08904902086E+02	 4.84530873887E-01	 3.64070784901E+01
	 8.12214076264E-01	-1.06969970801E+01	 4.84380279157E-01	 3.63408515784E+01	 2.48415598403E-01	 3.60165660796E+01
6.83553580441E+00	 2.52190159450E-01	 3.42326822597E+01	 4.92160978500E-01	-1.45080873144E+02	 8.05999524525E-01	-1.05425810102E+01
	 4.91821973283E-01	-1.45133990274E+02	 5.97074356421E-01	 1.06954119156E+02	 4.91956774430E-01	 3.51978020117E+01
	 8.05954516700E-01	-1.06442789340E+01	 4.91846057268E-01	 3.51208858585E+01	 2.52217427428E-01	 3.48517079474E+01
7.15711545149E+00	 2.55909350006E-01	 3.30553363139E+01	 4.99213935257E-01	-1.46292814612E+02	 7.99780656754E-01	-1.04782807526E+01
	 4.98910207826E-01	-1.46347130632E+02	 5.82259382010E-01	 1.05006355141E+02	 4.99074159172E-01	 3.40145943000E+01
	 7.99814713684E-01	-1.05882443770E+01	 4.98956895779E-01	 3.39306531021E+01	 2.55872458020E-01	 3.37184659722E+01
7.49382390082E+00	 2.59431775985E-01	 3.19185212415E+01	 5.06162030778E-01	-1.47473544048E+02	 7.93801283597E-01	-1.04142833946E+01
	 5.05818133843E-01	-1.47523800009E+02	 5.67781682248E-01	 1.03037923384E+02	 5.05900904206E-01	 3.28137649802E+01
	 7.93792336718E-01	-1.05125818131E+01	 5.05868445095E-01	 3.27450684829E+01	 2.59377235824E-01	 3.25840763351E+01
7.84637289102E+00	 2.62722560469E-01	 3.08000261119E+01	 5.12659252386E-01	-1.48634034526E+02	 7.88074792111E-01	-1.03206344872E+01
	 5.12198421454E-01	-1.48696112297E+02	 5.53501597458E-01	 1.01055404649E+02	 5.12493604604E-01	 3.16810131606E+01
	 7.87978424852E-01	-1.04274721706E+01	 5.12439243895E-01	 3.16122868936E+01	 2.62757046401E-01	 3.15200528344E+01
8.21550764466E+00	 2.65994147837E-01	 2.96950444764E+01	 5.18900685977E-01	-1.49768863182E+02	 7.82263738312E-01	-1.02226946964E+01
	 5.18475882422E-01	-1.49809755996E+02	 5.39519585457E-01	 9.90759018590E+01	 5.18723942892E-01	 3.05717634925E+01
	 7.82368519661E-01	-1.03294995420E+01	 5.18632952764E-01	 3.04882148328E+01	 2.66053518424E-01	 3.04558196261E+01
8.60200844352E+00	 2.69021320091E-01	 2.86150968248E+01	 5.24780780487E-01	-1.50878512051E+02	 7.76889463531E-01	-1.01100906399E+01
	 5.24570308843E-01	-1.50921319578E+02	 5.25936729963E-01	 9.70958832697E+01	 5.24689527419E-01	 2.94811182204E+01
	 7.76926920540E-01	-1.02232072896E+01	 5.24479232331E-01	 2.93965371885E+01	 2.69042587364E-01	 2.94181546302E+01
9.00669227791E+00	 2.71943393996E-01	 2.75798393155E+01	 5.30478323994E-01	-1.51965881066E+02	 7.71609109886E-01	-9.97630383453E+00
	 5.30200930879E-01	-1.52014751712E+02	 5.12671982801E-01	 9.50846884698E+01	 5.30357970240E-01	 2.84235827906E+01
	 7.71624455848E-01	-1.00923901920E+01	 5.30187886048E-01	 2.83272010333E+01	 2.72013108215E-01	 2.84055923962E+01
9.43041457372E+00	 2.74701494218E-01	 2.65608705124E+01	 5.36015350272E-01	-1.53033485913E+02	 7.66538245926E-01	-9.85067260642E+00
	 5.35573944019E-01	-1.53072970188E+02	 4.99809417794E-01	 9.30874515121E+01	 5.35713205963E-01	 2.73757601909E+01